#restart   Tully
#N_atoms     6
#coordinates
       -0.1052514644        0.0649136679       -0.0881699218
        1.1559597867       -0.0379200149       -0.1814636972
        0.0493233035        0.6624700429        1.3316391780
        1.6140669569        0.1751315206       -1.0537299729
       -0.8032249381       -0.6492767857       -0.6245893501
        1.5732323882        0.0960029443        1.5879848301
#velocity
      -18.1622308226       13.5760956178        9.2154721513
       22.7251235870       -3.8195262832      -10.1829141987
       -3.5627967395      -87.8810352031       16.7834661058
      -81.1106086594      -61.0379352112      -43.1396874977
       31.7002772748      -21.0918853077      -42.6232089871
      -46.5230407791       61.4324284564      100.7373193707
#init_stat  2
#N_ex_stat  3
#population
       -0.1636876359        0.1880308141
        0.6918929513        0.0358430528
       -0.6758207744       -0.0334136384
#old_H
        0.0000000000
      -82.4887896641
       26.9328336465
     -589.8915899743
       35.9720269067
    -6566.8682624077
#old_rd
        0.0000000000
       82.4887896641
      -26.9328336465
        0.0000000000
      -35.9720269067
        0.0000000000
#energx
      369.3315807436
      378.2853860410
      469.0083024233
#N_ci_conf     6
#old_CI_comp
       -0.9571807700
        0.2521182371
       -0.0005794716
        0.1401747663
        0.0234193824
        0.0066030084
       -0.2804700717
       -0.9282356110
        0.0135074154
       -0.2431663619
       -0.0174109938
        0.0099858330
       -0.0021114996
       -0.0280847269
       -0.9789714940
        0.0650676916
       -0.1776318045
       -0.0709559099
#N_act_CI_orb   3
#old_de
 3
 3
 0
 3
 1
 1
 1
 3
 1
 3
 0
 3
 1
 1
 3
 0
 3
 3
#rnd_count 536
